n -t * -s 0  -x 332.87478732828902 -y 479.98727854279701 -Z 0 -z 20  -v circle -c green
n -t * -s 1  -x 339.86853975631698 -y 261.776568589156 -Z 0 -z 20  -v circle -c green
n -t * -s 2  -x 485.61639210866099 -y 113.432343721839 -Z 0 -z 20  -v circle -c green
n -t * -s 3  -x 185.94820976192801 -y 249.386981914866 -Z 0 -z 20  -v circle -c green
n -t * -s 4  -x 485.612954364041 -y 205.02045171899999 -Z 0 -z 20  -v circle -c green
n -t * -s 5  -x 481.62713488062002 -y 41.080202219234998 -Z 0 -z 20  -v circle -c green
n -t * -s 6  -x 368.813695784949 -y 74.653514434567001 -Z 0 -z 20  -v circle -c green
n -t * -s 7  -x 86.924774823793001 -y 70.748657736862 -Z 0 -z 20  -v circle -c green
n -t * -s 8  -x 500 -y 0 -Z 0 -z 20  -v circle -c green
n -t * -s 9  -x 0 -y 500 -Z 0 -z 20  -v circle -c green
V -t * -v 1.0a5 -a 0
W -t * -x 530 -y 530
A -t * -n 1 -p 0 -o 0x7fffffff -c 30 -a 1
A -t * -h 1 -m 1073741823 -s 0
+ -t 2.556838879 -s 8 -d -1 -p cbr -e 512 -c 2 -a 0 -i 0 -k AGT 
- -t 2.556838879 -s 8 -d -1 -p cbr -e 512 -c 2 -a 0 -i 0 -k AGT
h -t 2.556838879 -s 8 -d -1 -p cbr -e 512 -c 2 -a 0 -i 0 -k AGT
+ -t 2.556838879 -s 8 -d -1 -p AOMDV -e 52 -c 2 -a 0 -i 0 -k RTR 
- -t 2.556838879 -s 8 -d -1 -p AOMDV -e 52 -c 2 -a 0 -i 0 -k RTR
h -t 2.556838879 -s 8 -d -1 -p AOMDV -e 52 -c 2 -a 0 -i 0 -k RTR
+ -t 2.557213879 -s 8 -d -1 -p AOMDV -e 110 -c 2 -a 0 -i 0 -k MAC 
- -t 2.557213879 -s 8 -d -1 -p AOMDV -e 110 -c 2 -a 0 -i 0 -k MAC
h -t 2.557213879 -s 8 -d -1 -p AOMDV -e 110 -c 2 -a 0 -i 0 -k MAC
r -t 2.558094029 -s 5 -d -1 -p AOMDV -e 52 -c 2 -a 0 -i 0 -k MAC
r -t 2.558094260 -s 2 -d -1 -p AOMDV -e 52 -c 2 -a 0 -i 0 -k MAC
r -t 2.558094382 -s 6 -d -1 -p AOMDV -e 52 -c 2 -a 0 -i 0 -k MAC
r -t 2.558094564 -s 4 -d -1 -p AOMDV -e 52 -c 2 -a 0 -i 0 -k MAC
r -t 2.558094902 -s 1 -d -1 -p AOMDV -e 52 -c 2 -a 0 -i 0 -k MAC
r -t 2.558119029 -s 5 -d -1 -p AOMDV -e 52 -c 2 -a 0 -i 0 -k RTR
r -t 2.558119260 -s 2 -d -1 -p AOMDV -e 52 -c 2 -a 0 -i 0 -k RTR
r -t 2.558119382 -s 6 -d -1 -p AOMDV -e 52 -c 2 -a 0 -i 0 -k RTR
r -t 2.558119564 -s 4 -d -1 -p AOMDV -e 52 -c 2 -a 0 -i 0 -k RTR
r -t 2.558119902 -s 1 -d -1 -p AOMDV -e 52 -c 2 -a 0 -i 0 -k RTR
+ -t 2.559211367 -s 6 -d -1 -p AOMDV -e 52 -c 2 -a 0 -i 0 -k RTR 
- -t 2.559211367 -s 6 -d -1 -p AOMDV -e 52 -c 2 -a 0 -i 0 -k RTR
h -t 2.559211367 -s 6 -d -1 -p AOMDV -e 52 -c 2 -a 0 -i 0 -k RTR
+ -t 2.559806367 -s 6 -d -1 -p AOMDV -e 110 -c 2 -a 0 -i 0 -k MAC 
- -t 2.559806367 -s 6 -d -1 -p AOMDV -e 110 -c 2 -a 0 -i 0 -k MAC
h -t 2.559806367 -s 6 -d -1 -p AOMDV -e 110 -c 2 -a 0 -i 0 -k MAC
+ -t 2.559993554 -s 1 -d -1 -p AOMDV -e 52 -c 2 -a 0 -i 0 -k RTR 
- -t 2.559993554 -s 1 -d -1 -p AOMDV -e 52 -c 2 -a 0 -i 0 -k RTR
h -t 2.559993554 -s 1 -d -1 -p AOMDV -e 52 -c 2 -a 0 -i 0 -k RTR
r -t 2.560686759 -s 5 -d -1 -p AOMDV -e 52 -c 2 -a 0 -i 0 -k MAC
r -t 2.560686777 -s 2 -d -1 -p AOMDV -e 52 -c 2 -a 0 -i 0 -k MAC
r -t 2.560686870 -s 8 -d -1 -p AOMDV -e 52 -c 2 -a 0 -i 0 -k MAC
r -t 2.560686950 -s 4 -d -1 -p AOMDV -e 52 -c 2 -a 0 -i 0 -k MAC
r -t 2.560686998 -s 1 -d -1 -p AOMDV -e 52 -c 2 -a 0 -i 0 -k MAC
r -t 2.560687210 -s 3 -d -1 -p AOMDV -e 52 -c 2 -a 0 -i 0 -k MAC
r -t 2.560687306 -s 7 -d -1 -p AOMDV -e 52 -c 2 -a 0 -i 0 -k MAC
r -t 2.560711759 -s 5 -d -1 -p AOMDV -e 52 -c 2 -a 0 -i 0 -k RTR
r -t 2.560711777 -s 2 -d -1 -p AOMDV -e 52 -c 2 -a 0 -i 0 -k RTR
r -t 2.560711870 -s 8 -d -1 -p AOMDV -e 52 -c 2 -a 0 -i 0 -k RTR
r -t 2.560711950 -s 4 -d -1 -p AOMDV -e 52 -c 2 -a 0 -i 0 -k RTR
r -t 2.560711998 -s 1 -d -1 -p AOMDV -e 52 -c 2 -a 0 -i 0 -k RTR
r -t 2.560712210 -s 3 -d -1 -p AOMDV -e 52 -c 2 -a 0 -i 0 -k RTR
r -t 2.560712306 -s 7 -d -1 -p AOMDV -e 52 -c 2 -a 0 -i 0 -k RTR
+ -t 2.560956998 -s 1 -d -1 -p AOMDV -e 110 -c 2 -a 0 -i 0 -k MAC 
- -t 2.560956998 -s 1 -d -1 -p AOMDV -e 110 -c 2 -a 0 -i 0 -k MAC
h -t 2.560956998 -s 1 -d -1 -p AOMDV -e 110 -c 2 -a 0 -i 0 -k MAC
+ -t 2.561296333 -s 7 -d -1 -p AOMDV -e 52 -c 2 -a 0 -i 0 -k RTR 
- -t 2.561296333 -s 7 -d -1 -p AOMDV -e 52 -c 2 -a 0 -i 0 -k RTR
h -t 2.561296333 -s 7 -d -1 -p AOMDV -e 52 -c 2 -a 0 -i 0 -k RTR
+ -t 2.561832523 -s 3 -d -1 -p AOMDV -e 52 -c 2 -a 0 -i 0 -k RTR 
- -t 2.561832523 -s 3 -d -1 -p AOMDV -e 52 -c 2 -a 0 -i 0 -k RTR
h -t 2.561832523 -s 3 -d -1 -p AOMDV -e 52 -c 2 -a 0 -i 0 -k RTR
r -t 2.561837512 -s 3 -d -1 -p AOMDV -e 52 -c 2 -a 0 -i 0 -k MAC
r -t 2.561837519 -s 4 -d -1 -p AOMDV -e 52 -c 2 -a 0 -i 0 -k MAC
r -t 2.561837629 -s 6 -d -1 -p AOMDV -e 52 -c 2 -a 0 -i 0 -k MAC
r -t 2.561837691 -s 2 -d -1 -p AOMDV -e 52 -c 2 -a 0 -i 0 -k MAC
r -t 2.561837725 -s 0 -d -1 -p AOMDV -e 52 -c 2 -a 0 -i 0 -k MAC
r -t 2.561837872 -s 5 -d -1 -p AOMDV -e 52 -c 2 -a 0 -i 0 -k MAC
r -t 2.561838021 -s 8 -d -1 -p AOMDV -e 52 -c 2 -a 0 -i 0 -k MAC
r -t 2.561838054 -s 7 -d -1 -p AOMDV -e 52 -c 2 -a 0 -i 0 -k MAC
r -t 2.561862512 -s 3 -d -1 -p AOMDV -e 52 -c 2 -a 0 -i 0 -k RTR
r -t 2.561862519 -s 4 -d -1 -p AOMDV -e 52 -c 2 -a 0 -i 0 -k RTR
r -t 2.561862629 -s 6 -d -1 -p AOMDV -e 52 -c 2 -a 0 -i 0 -k RTR
r -t 2.561862691 -s 2 -d -1 -p AOMDV -e 52 -c 2 -a 0 -i 0 -k RTR
r -t 2.561862725 -s 0 -d -1 -p AOMDV -e 52 -c 2 -a 0 -i 0 -k RTR
r -t 2.561862872 -s 5 -d -1 -p AOMDV -e 52 -c 2 -a 0 -i 0 -k RTR
r -t 2.561863021 -s 8 -d -1 -p AOMDV -e 52 -c 2 -a 0 -i 0 -k RTR
r -t 2.561863054 -s 7 -d -1 -p AOMDV -e 52 -c 2 -a 0 -i 0 -k RTR
+ -t 2.562008054 -s 7 -d -1 -p AOMDV -e 110 -c 2 -a 0 -i 0 -k MAC 
- -t 2.562008054 -s 7 -d -1 -p AOMDV -e 110 -c 2 -a 0 -i 0 -k MAC
h -t 2.562008054 -s 7 -d -1 -p AOMDV -e 110 -c 2 -a 0 -i 0 -k MAC
+ -t 2.562161639 -s 4 -d -1 -p AOMDV -e 52 -c 2 -a 0 -i 0 -k RTR 
- -t 2.562161639 -s 4 -d -1 -p AOMDV -e 52 -c 2 -a 0 -i 0 -k RTR
h -t 2.562161639 -s 4 -d -1 -p AOMDV -e 52 -c 2 -a 0 -i 0 -k RTR
+ -t 2.562174451 -s 2 -d -1 -p AOMDV -e 52 -c 2 -a 0 -i 0 -k RTR 
- -t 2.562174451 -s 2 -d -1 -p AOMDV -e 52 -c 2 -a 0 -i 0 -k RTR
h -t 2.562174451 -s 2 -d -1 -p AOMDV -e 52 -c 2 -a 0 -i 0 -k RTR
+ -t 2.562416639 -s 4 -d -1 -p AOMDV -e 110 -c 2 -a 0 -i 0 -k MAC 
- -t 2.562416639 -s 4 -d -1 -p AOMDV -e 110 -c 2 -a 0 -i 0 -k MAC
h -t 2.562416639 -s 4 -d -1 -p AOMDV -e 110 -c 2 -a 0 -i 0 -k MAC
d -t 2.562417160 -s 1 -d -1 -p AOMDV -e 110 -c 2 -a 0 -i 0 -k MAC
d -t 2.562417186 -s 5 -d -1 -p AOMDV -e 110 -c 2 -a 0 -i 0 -k MAC
d -t 2.562417223 -s 6 -d -1 -p AOMDV -e 110 -c 2 -a 0 -i 0 -k MAC
d -t 2.562417649 -s 3 -d -1 -p AOMDV -e 110 -c 2 -a 0 -i 0 -k MAC
+ -t 2.563093760 -s 0 -d -1 -p AOMDV -e 52 -c 2 -a 0 -i 0 -k RTR 
- -t 2.563093760 -s 0 -d -1 -p AOMDV -e 52 -c 2 -a 0 -i 0 -k RTR
h -t 2.563093760 -s 0 -d -1 -p AOMDV -e 52 -c 2 -a 0 -i 0 -k RTR
r -t 2.563296944 -s 2 -d -1 -p AOMDV -e 52 -c 2 -a 0 -i 0 -k MAC
d -t 2.563297160 -s 1 -d -1 -p AOMDV -e 110 -c 2 -a 0 -i 0 -k MAC
d -t 2.563297186 -s 5 -d -1 -p AOMDV -e 110 -c 2 -a 0 -i 0 -k MAC
d -t 2.563297223 -s 6 -d -1 -p AOMDV -e 110 -c 2 -a 0 -i 0 -k MAC
r -t 2.563297324 -s 8 -d -1 -p AOMDV -e 52 -c 2 -a 0 -i 0 -k MAC
d -t 2.563297649 -s 3 -d -1 -p AOMDV -e 110 -c 2 -a 0 -i 0 -k MAC
r -t 2.563297688 -s 0 -d -1 -p AOMDV -e 52 -c 2 -a 0 -i 0 -k MAC
r -t 2.563321944 -s 2 -d -1 -p AOMDV -e 52 -c 2 -a 0 -i 0 -k RTR
r -t 2.563322324 -s 8 -d -1 -p AOMDV -e 52 -c 2 -a 0 -i 0 -k RTR
r -t 2.563322688 -s 0 -d -1 -p AOMDV -e 52 -c 2 -a 0 -i 0 -k RTR
+ -t 2.563466944 -s 2 -d -1 -p AOMDV -e 110 -c 2 -a 0 -i 0 -k MAC 
- -t 2.563466944 -s 2 -d -1 -p AOMDV -e 110 -c 2 -a 0 -i 0 -k MAC
h -t 2.563466944 -s 2 -d -1 -p AOMDV -e 110 -c 2 -a 0 -i 0 -k MAC
r -t 2.564347186 -s 5 -d -1 -p AOMDV -e 52 -c 2 -a 0 -i 0 -k MAC
r -t 2.564347250 -s 4 -d -1 -p AOMDV -e 52 -c 2 -a 0 -i 0 -k MAC
r -t 2.564347325 -s 8 -d -1 -p AOMDV -e 52 -c 2 -a 0 -i 0 -k MAC
r -t 2.564347355 -s 6 -d -1 -p AOMDV -e 52 -c 2 -a 0 -i 0 -k MAC
r -t 2.564347638 -s 1 -d -1 -p AOMDV -e 52 -c 2 -a 0 -i 0 -k MAC
r -t 2.564348041 -s 3 -d -1 -p AOMDV -e 52 -c 2 -a 0 -i 0 -k MAC
r -t 2.564348268 -s 0 -d -1 -p AOMDV -e 52 -c 2 -a 0 -i 0 -k MAC
r -t 2.564372186 -s 5 -d -1 -p AOMDV -e 52 -c 2 -a 0 -i 0 -k RTR
r -t 2.564372250 -s 4 -d -1 -p AOMDV -e 52 -c 2 -a 0 -i 0 -k RTR
r -t 2.564372325 -s 8 -d -1 -p AOMDV -e 52 -c 2 -a 0 -i 0 -k RTR
r -t 2.564372355 -s 6 -d -1 -p AOMDV -e 52 -c 2 -a 0 -i 0 -k RTR
r -t 2.564372638 -s 1 -d -1 -p AOMDV -e 52 -c 2 -a 0 -i 0 -k RTR
r -t 2.564373041 -s 3 -d -1 -p AOMDV -e 52 -c 2 -a 0 -i 0 -k RTR
r -t 2.564373268 -s 0 -d -1 -p AOMDV -e 52 -c 2 -a 0 -i 0 -k RTR
+ -t 2.564498268 -s 0 -d -1 -p AOMDV -e 110 -c 2 -a 0 -i 0 -k MAC 
- -t 2.564498268 -s 0 -d -1 -p AOMDV -e 110 -c 2 -a 0 -i 0 -k MAC
h -t 2.564498268 -s 0 -d -1 -p AOMDV -e 110 -c 2 -a 0 -i 0 -k MAC
r -t 2.565378996 -s 1 -d -1 -p AOMDV -e 52 -c 2 -a 0 -i 0 -k MAC
r -t 2.565379179 -s 3 -d -1 -p AOMDV -e 52 -c 2 -a 0 -i 0 -k MAC
r -t 2.565379316 -s 4 -d -1 -p AOMDV -e 52 -c 2 -a 0 -i 0 -k MAC
r -t 2.565379380 -s 9 -d -1 -p AOMDV -e 52 -c 2 -a 0 -i 0 -k MAC
r -t 2.565379592 -s 2 -d -1 -p AOMDV -e 52 -c 2 -a 0 -i 0 -k MAC
r -t 2.565403996 -s 1 -d -1 -p AOMDV -e 52 -c 2 -a 0 -i 0 -k RTR
r -t 2.565404179 -s 3 -d -1 -p AOMDV -e 52 -c 2 -a 0 -i 0 -k RTR
r -t 2.565404316 -s 4 -d -1 -p AOMDV -e 52 -c 2 -a 0 -i 0 -k RTR
r -t 2.565404380 -s 9 -d -1 -p AOMDV -e 52 -c 2 -a 0 -i 0 -k RTR
+ -t 2.565404380 -s 9 -d 0 -p AOMDV -e 52 -c 2 -a 0 -i 0 -k RTR 
- -t 2.565404380 -s 9 -d 0 -p AOMDV -e 52 -c 2 -a 0 -i 0 -k RTR
h -t 2.565404380 -s 9 -d 0 -p AOMDV -e 52 -c 2 -a 0 -i 0 -k RTR
r -t 2.565404592 -s 2 -d -1 -p AOMDV -e 52 -c 2 -a 0 -i 0 -k RTR
+ -t 2.565539380 -s 9 -d -1 -p ARP -e 86 -c 2 -a 0 -i 0 -k MAC 
- -t 2.565539380 -s 9 -d -1 -p ARP -e 86 -c 2 -a 0 -i 0 -k MAC
h -t 2.565539380 -s 9 -d -1 -p ARP -e 86 -c 2 -a 0 -i 0 -k MAC
r -t 2.566228420 -s 3 -d -1 -p ARP -e 28 -c 2 -a 0 -i 0 -k MAC
r -t 2.566228491 -s 0 -d -1 -p ARP -e 28 -c 2 -a 0 -i 0 -k MAC
+ -t 2.566398491 -s 0 -d -1 -p RTS -e 44 -c 2 -a 0 -i 0 -k MAC 
- -t 2.566398491 -s 0 -d -1 -p RTS -e 44 -c 2 -a 0 -i 0 -k MAC
h -t 2.566398491 -s 0 -d -1 -p RTS -e 44 -c 2 -a 0 -i 0 -k MAC
r -t 2.566751603 -s 9 -d -1 -p RTS -e 44 -c 2 -a 0 -i 0 -k MAC
+ -t 2.566761603 -s 9 -d -1 -p CTS -e 38 -c 2 -a 0 -i 0 -k MAC 
- -t 2.566761603 -s 9 -d -1 -p CTS -e 38 -c 2 -a 0 -i 0 -k MAC
h -t 2.566761603 -s 9 -d -1 -p CTS -e 38 -c 2 -a 0 -i 0 -k MAC
r -t 2.567066714 -s 0 -d -1 -p CTS -e 38 -c 2 -a 0 -i 0 -k MAC
+ -t 2.567076714 -s 0 -d -1 -p ARP -e 86 -c 2 -a 0 -i 0 -k MAC 
- -t 2.567076714 -s 0 -d -1 -p ARP -e 86 -c 2 -a 0 -i 0 -k MAC
h -t 2.567076714 -s 0 -d -1 -p ARP -e 86 -c 2 -a 0 -i 0 -k MAC
+ -t 2.567168483 -s 5 -d -1 -p AOMDV -e 52 -c 2 -a 0 -i 0 -k RTR 
- -t 2.567168483 -s 5 -d -1 -p AOMDV -e 52 -c 2 -a 0 -i 0 -k RTR
h -t 2.567168483 -s 5 -d -1 -p AOMDV -e 52 -c 2 -a 0 -i 0 -k RTR
+ -t 2.567243483 -s 5 -d -1 -p AOMDV -e 110 -c 2 -a 0 -i 0 -k MAC 
- -t 2.567243483 -s 5 -d -1 -p AOMDV -e 110 -c 2 -a 0 -i 0 -k MAC
h -t 2.567243483 -s 5 -d -1 -p AOMDV -e 110 -c 2 -a 0 -i 0 -k MAC
r -t 2.567765826 -s 9 -d -1 -p ARP -e 28 -c 2 -a 0 -i 0 -k MAC
+ -t 2.567775826 -s 9 -d -1 -p ACK -e 38 -c 2 -a 0 -i 0 -k MAC 
- -t 2.567775826 -s 9 -d -1 -p ACK -e 38 -c 2 -a 0 -i 0 -k MAC
h -t 2.567775826 -s 9 -d -1 -p ACK -e 38 -c 2 -a 0 -i 0 -k MAC
r -t 2.568080938 -s 0 -d -1 -p ACK -e 38 -c 2 -a 0 -i 0 -k MAC
r -t 2.568123633 -s 8 -d -1 -p AOMDV -e 52 -c 2 -a 0 -i 0 -k MAC
d -t 2.568123725 -s 2 -d -1 -p AOMDV -e 110 -c 2 -a 0 -i 0 -k MAC
r -t 2.568123876 -s 6 -d -1 -p AOMDV -e 52 -c 2 -a 0 -i 0 -k MAC
d -t 2.568124030 -s 4 -d -1 -p AOMDV -e 110 -c 2 -a 0 -i 0 -k MAC
d -t 2.568124358 -s 1 -d -1 -p AOMDV -e 110 -c 2 -a 0 -i 0 -k MAC
d -t 2.568124689 -s 3 -d -1 -p AOMDV -e 110 -c 2 -a 0 -i 0 -k MAC
r -t 2.568124803 -s 7 -d -1 -p AOMDV -e 52 -c 2 -a 0 -i 0 -k MAC
r -t 2.568148633 -s 8 -d -1 -p AOMDV -e 52 -c 2 -a 0 -i 0 -k RTR
r -t 2.568148876 -s 6 -d -1 -p AOMDV -e 52 -c 2 -a 0 -i 0 -k RTR
r -t 2.568149803 -s 7 -d -1 -p AOMDV -e 52 -c 2 -a 0 -i 0 -k RTR
+ -t 2.568309826 -s 9 -d -1 -p RTS -e 44 -c 2 -a 0 -i 0 -k MAC 
- -t 2.568309826 -s 9 -d -1 -p RTS -e 44 -c 2 -a 0 -i 0 -k MAC
h -t 2.568309826 -s 9 -d -1 -p RTS -e 44 -c 2 -a 0 -i 0 -k MAC
r -t 2.568662938 -s 0 -d -1 -p RTS -e 44 -c 2 -a 0 -i 0 -k MAC
+ -t 2.568672938 -s 0 -d -1 -p CTS -e 38 -c 2 -a 0 -i 0 -k MAC 
- -t 2.568672938 -s 0 -d -1 -p CTS -e 38 -c 2 -a 0 -i 0 -k MAC
h -t 2.568672938 -s 0 -d -1 -p CTS -e 38 -c 2 -a 0 -i 0 -k MAC
r -t 2.568978049 -s 9 -d -1 -p CTS -e 38 -c 2 -a 0 -i 0 -k MAC
+ -t 2.568988049 -s 9 -d 0 -p AOMDV -e 110 -c 2 -a 0 -i 0 -k MAC 
- -t 2.568988049 -s 9 -d 0 -p AOMDV -e 110 -c 2 -a 0 -i 0 -k MAC
h -t 2.568988049 -s 9 -d 0 -p AOMDV -e 110 -c 2 -a 0 -i 0 -k MAC
r -t 2.569869161 -s 0 -d 0 -p AOMDV -e 52 -c 2 -a 0 -i 0 -k MAC
+ -t 2.569879161 -s 0 -d -1 -p ACK -e 38 -c 2 -a 0 -i 0 -k MAC 
- -t 2.569879161 -s 0 -d -1 -p ACK -e 38 -c 2 -a 0 -i 0 -k MAC
h -t 2.569879161 -s 0 -d -1 -p ACK -e 38 -c 2 -a 0 -i 0 -k MAC
+ -t 2.569894161 -s 0 -d 1 -p AOMDV -e 52 -c 2 -a 0 -i 0 -k RTR 
- -t 2.569894161 -s 0 -d 1 -p AOMDV -e 52 -c 2 -a 0 -i 0 -k RTR
h -t 2.569894161 -s 0 -d 1 -p AOMDV -e 52 -c 2 -a 0 -i 0 -k RTR
r -t 2.570184272 -s 9 -d -1 -p ACK -e 38 -c 2 -a 0 -i 0 -k MAC
+ -t 2.570293161 -s 0 -d -1 -p ARP -e 86 -c 2 -a 0 -i 0 -k MAC 
- -t 2.570293161 -s 0 -d -1 -p ARP -e 86 -c 2 -a 0 -i 0 -k MAC
h -t 2.570293161 -s 0 -d -1 -p ARP -e 86 -c 2 -a 0 -i 0 -k MAC
r -t 2.570981888 -s 1 -d -1 -p ARP -e 28 -c 2 -a 0 -i 0 -k MAC
r -t 2.570982072 -s 3 -d -1 -p ARP -e 28 -c 2 -a 0 -i 0 -k MAC
r -t 2.570982209 -s 4 -d -1 -p ARP -e 28 -c 2 -a 0 -i 0 -k MAC
r -t 2.570982272 -s 9 -d -1 -p ARP -e 28 -c 2 -a 0 -i 0 -k MAC
r -t 2.570982484 -s 2 -d -1 -p ARP -e 28 -c 2 -a 0 -i 0 -k MAC
+ -t 2.571072072 -s 3 -d -1 -p AOMDV -e 110 -c 2 -a 0 -i 0 -k MAC 
- -t 2.571072072 -s 3 -d -1 -p AOMDV -e 110 -c 2 -a 0 -i 0 -k MAC
h -t 2.571072072 -s 3 -d -1 -p AOMDV -e 110 -c 2 -a 0 -i 0 -k MAC
r -t 2.571952587 -s 1 -d -1 -p AOMDV -e 52 -c 2 -a 0 -i 0 -k MAC
r -t 2.571952753 -s 7 -d -1 -p AOMDV -e 52 -c 2 -a 0 -i 0 -k MAC
r -t 2.571952915 -s 6 -d -1 -p AOMDV -e 52 -c 2 -a 0 -i 0 -k MAC
r -t 2.571952984 -s 0 -d -1 -p AOMDV -e 52 -c 2 -a 0 -i 0 -k MAC
r -t 2.571953082 -s 4 -d -1 -p AOMDV -e 52 -c 2 -a 0 -i 0 -k MAC
r -t 2.571953112 -s 9 -d -1 -p AOMDV -e 52 -c 2 -a 0 -i 0 -k MAC
r -t 2.571953169 -s 2 -d -1 -p AOMDV -e 52 -c 2 -a 0 -i 0 -k MAC
r -t 2.571953278 -s 5 -d -1 -p AOMDV -e 52 -c 2 -a 0 -i 0 -k MAC
r -t 2.571977587 -s 1 -d -1 -p AOMDV -e 52 -c 2 -a 0 -i 0 -k RTR
r -t 2.571977753 -s 7 -d -1 -p AOMDV -e 52 -c 2 -a 0 -i 0 -k RTR
r -t 2.571977915 -s 6 -d -1 -p AOMDV -e 52 -c 2 -a 0 -i 0 -k RTR
r -t 2.571977984 -s 0 -d -1 -p AOMDV -e 52 -c 2 -a 0 -i 0 -k RTR
r -t 2.571978082 -s 4 -d -1 -p AOMDV -e 52 -c 2 -a 0 -i 0 -k RTR
r -t 2.571978112 -s 9 -d -1 -p AOMDV -e 52 -c 2 -a 0 -i 0 -k RTR
+ -t 2.571978112 -s 9 -d 3 -p AOMDV -e 52 -c 2 -a 0 -i 0 -k RTR 
- -t 2.571978112 -s 9 -d 3 -p AOMDV -e 52 -c 2 -a 0 -i 0 -k RTR
h -t 2.571978112 -s 9 -d 3 -p AOMDV -e 52 -c 2 -a 0 -i 0 -k RTR
r -t 2.571978169 -s 2 -d -1 -p AOMDV -e 52 -c 2 -a 0 -i 0 -k RTR
r -t 2.571978278 -s 5 -d -1 -p AOMDV -e 52 -c 2 -a 0 -i 0 -k RTR
+ -t 2.572203112 -s 9 -d -1 -p ARP -e 86 -c 2 -a 0 -i 0 -k MAC 
- -t 2.572203112 -s 9 -d -1 -p ARP -e 86 -c 2 -a 0 -i 0 -k MAC
h -t 2.572203112 -s 9 -d -1 -p ARP -e 86 -c 2 -a 0 -i 0 -k MAC
+ -t 2.572462587 -s 1 -d -1 -p RTS -e 44 -c 2 -a 0 -i 0 -k MAC 
- -t 2.572462587 -s 1 -d -1 -p RTS -e 44 -c 2 -a 0 -i 0 -k MAC
h -t 2.572462587 -s 1 -d -1 -p RTS -e 44 -c 2 -a 0 -i 0 -k MAC
d -t 2.572463315 -s 0 -d -1 -p RTS -e 44 -c 2 -a 0 -i 0 -k MAC
d -t 2.572892153 -s 3 -d -1 -p ARP -e 86 -c 2 -a 0 -i 0 -k MAC
d -t 2.572892224 -s 0 -d -1 -p ARP -e 86 -c 2 -a 0 -i 0 -k MAC
+ -t 2.573222587 -s 1 -d -1 -p RTS -e 44 -c 2 -a 0 -i 0 -k MAC 
- -t 2.573222587 -s 1 -d -1 -p RTS -e 44 -c 2 -a 0 -i 0 -k MAC
h -t 2.573222587 -s 1 -d -1 -p RTS -e 44 -c 2 -a 0 -i 0 -k MAC
r -t 2.573575315 -s 0 -d -1 -p RTS -e 44 -c 2 -a 0 -i 0 -k MAC
+ -t 2.573585315 -s 0 -d -1 -p CTS -e 38 -c 2 -a 0 -i 0 -k MAC 
- -t 2.573585315 -s 0 -d -1 -p CTS -e 38 -c 2 -a 0 -i 0 -k MAC
h -t 2.573585315 -s 0 -d -1 -p CTS -e 38 -c 2 -a 0 -i 0 -k MAC
r -t 2.573890042 -s 1 -d -1 -p CTS -e 38 -c 2 -a 0 -i 0 -k MAC
+ -t 2.573900042 -s 1 -d -1 -p ARP -e 86 -c 2 -a 0 -i 0 -k MAC 
- -t 2.573900042 -s 1 -d -1 -p ARP -e 86 -c 2 -a 0 -i 0 -k MAC
h -t 2.573900042 -s 1 -d -1 -p ARP -e 86 -c 2 -a 0 -i 0 -k MAC
r -t 2.574588770 -s 0 -d -1 -p ARP -e 28 -c 2 -a 0 -i 0 -k MAC
+ -t 2.574598770 -s 0 -d -1 -p ACK -e 38 -c 2 -a 0 -i 0 -k MAC 
- -t 2.574598770 -s 0 -d -1 -p ACK -e 38 -c 2 -a 0 -i 0 -k MAC
h -t 2.574598770 -s 0 -d -1 -p ACK -e 38 -c 2 -a 0 -i 0 -k MAC
r -t 2.574903498 -s 1 -d -1 -p ACK -e 38 -c 2 -a 0 -i 0 -k MAC
+ -t 2.574992770 -s 0 -d -1 -p RTS -e 44 -c 2 -a 0 -i 0 -k MAC 
- -t 2.574992770 -s 0 -d -1 -p RTS -e 44 -c 2 -a 0 -i 0 -k MAC
h -t 2.574992770 -s 0 -d -1 -p RTS -e 44 -c 2 -a 0 -i 0 -k MAC
r -t 2.575345498 -s 1 -d -1 -p RTS -e 44 -c 2 -a 0 -i 0 -k MAC
+ -t 2.575355498 -s 1 -d -1 -p CTS -e 38 -c 2 -a 0 -i 0 -k MAC 
- -t 2.575355498 -s 1 -d -1 -p CTS -e 38 -c 2 -a 0 -i 0 -k MAC
h -t 2.575355498 -s 1 -d -1 -p CTS -e 38 -c 2 -a 0 -i 0 -k MAC
r -t 2.575660226 -s 0 -d -1 -p CTS -e 38 -c 2 -a 0 -i 0 -k MAC
+ -t 2.575670226 -s 0 -d 1 -p AOMDV -e 110 -c 2 -a 0 -i 0 -k MAC 
- -t 2.575670226 -s 0 -d 1 -p AOMDV -e 110 -c 2 -a 0 -i 0 -k MAC
h -t 2.575670226 -s 0 -d 1 -p AOMDV -e 110 -c 2 -a 0 -i 0 -k MAC
r -t 2.576550953 -s 1 -d 1 -p AOMDV -e 52 -c 2 -a 0 -i 0 -k MAC
+ -t 2.576560953 -s 1 -d -1 -p ACK -e 38 -c 2 -a 0 -i 0 -k MAC 
- -t 2.576560953 -s 1 -d -1 -p ACK -e 38 -c 2 -a 0 -i 0 -k MAC
h -t 2.576560953 -s 1 -d -1 -p ACK -e 38 -c 2 -a 0 -i 0 -k MAC
+ -t 2.576575953 -s 1 -d 8 -p AOMDV -e 52 -c 2 -a 0 -i 0 -k RTR 
- -t 2.576575953 -s 1 -d 8 -p AOMDV -e 52 -c 2 -a 0 -i 0 -k RTR
h -t 2.576575953 -s 1 -d 8 -p AOMDV -e 52 -c 2 -a 0 -i 0 -k RTR
r -t 2.576865681 -s 0 -d -1 -p ACK -e 38 -c 2 -a 0 -i 0 -k MAC
+ -t 2.577334953 -s 1 -d -1 -p ARP -e 86 -c 2 -a 0 -i 0 -k MAC 
- -t 2.577334953 -s 1 -d -1 -p ARP -e 86 -c 2 -a 0 -i 0 -k MAC
h -t 2.577334953 -s 1 -d -1 -p ARP -e 86 -c 2 -a 0 -i 0 -k MAC
r -t 2.578023468 -s 3 -d -1 -p ARP -e 28 -c 2 -a 0 -i 0 -k MAC
r -t 2.578023475 -s 4 -d -1 -p ARP -e 28 -c 2 -a 0 -i 0 -k MAC
r -t 2.578023584 -s 6 -d -1 -p ARP -e 28 -c 2 -a 0 -i 0 -k MAC
r -t 2.578023647 -s 2 -d -1 -p ARP -e 28 -c 2 -a 0 -i 0 -k MAC
r -t 2.578023681 -s 0 -d -1 -p ARP -e 28 -c 2 -a 0 -i 0 -k MAC
r -t 2.578023828 -s 5 -d -1 -p ARP -e 28 -c 2 -a 0 -i 0 -k MAC
r -t 2.578023976 -s 8 -d -1 -p ARP -e 28 -c 2 -a 0 -i 0 -k MAC
r -t 2.578024010 -s 7 -d -1 -p ARP -e 28 -c 2 -a 0 -i 0 -k MAC
+ -t 2.578178976 -s 8 -d -1 -p RTS -e 44 -c 2 -a 0 -i 0 -k MAC 
- -t 2.578178976 -s 8 -d -1 -p RTS -e 44 -c 2 -a 0 -i 0 -k MAC
h -t 2.578178976 -s 8 -d -1 -p RTS -e 44 -c 2 -a 0 -i 0 -k MAC
r -t 2.578531999 -s 1 -d -1 -p RTS -e 44 -c 2 -a 0 -i 0 -k MAC
+ -t 2.578541999 -s 1 -d -1 -p CTS -e 38 -c 2 -a 0 -i 0 -k MAC 
- -t 2.578541999 -s 1 -d -1 -p CTS -e 38 -c 2 -a 0 -i 0 -k MAC
h -t 2.578541999 -s 1 -d -1 -p CTS -e 38 -c 2 -a 0 -i 0 -k MAC
r -t 2.578847022 -s 8 -d -1 -p CTS -e 38 -c 2 -a 0 -i 0 -k MAC
+ -t 2.578857022 -s 8 -d -1 -p ARP -e 86 -c 2 -a 0 -i 0 -k MAC 
- -t 2.578857022 -s 8 -d -1 -p ARP -e 86 -c 2 -a 0 -i 0 -k MAC
h -t 2.578857022 -s 8 -d -1 -p ARP -e 86 -c 2 -a 0 -i 0 -k MAC
r -t 2.579546045 -s 1 -d -1 -p ARP -e 28 -c 2 -a 0 -i 0 -k MAC
+ -t 2.579556045 -s 1 -d -1 -p ACK -e 38 -c 2 -a 0 -i 0 -k MAC 
- -t 2.579556045 -s 1 -d -1 -p ACK -e 38 -c 2 -a 0 -i 0 -k MAC
h -t 2.579556045 -s 1 -d -1 -p ACK -e 38 -c 2 -a 0 -i 0 -k MAC
r -t 2.579861068 -s 8 -d -1 -p ACK -e 38 -c 2 -a 0 -i 0 -k MAC
+ -t 2.580010045 -s 1 -d -1 -p RTS -e 44 -c 2 -a 0 -i 0 -k MAC 
- -t 2.580010045 -s 1 -d -1 -p RTS -e 44 -c 2 -a 0 -i 0 -k MAC
h -t 2.580010045 -s 1 -d -1 -p RTS -e 44 -c 2 -a 0 -i 0 -k MAC
r -t 2.580363068 -s 8 -d -1 -p RTS -e 44 -c 2 -a 0 -i 0 -k MAC
+ -t 2.580373068 -s 8 -d -1 -p CTS -e 38 -c 2 -a 0 -i 0 -k MAC 
- -t 2.580373068 -s 8 -d -1 -p CTS -e 38 -c 2 -a 0 -i 0 -k MAC
h -t 2.580373068 -s 8 -d -1 -p CTS -e 38 -c 2 -a 0 -i 0 -k MAC
r -t 2.580678091 -s 1 -d -1 -p CTS -e 38 -c 2 -a 0 -i 0 -k MAC
+ -t 2.580688091 -s 1 -d 8 -p AOMDV -e 110 -c 2 -a 0 -i 0 -k MAC 
- -t 2.580688091 -s 1 -d 8 -p AOMDV -e 110 -c 2 -a 0 -i 0 -k MAC
h -t 2.580688091 -s 1 -d 8 -p AOMDV -e 110 -c 2 -a 0 -i 0 -k MAC
r -t 2.581569114 -s 8 -d 8 -p AOMDV -e 52 -c 2 -a 0 -i 0 -k MAC
+ -t 2.581579114 -s 8 -d -1 -p ACK -e 38 -c 2 -a 0 -i 0 -k MAC 
- -t 2.581579114 -s 8 -d -1 -p ACK -e 38 -c 2 -a 0 -i 0 -k MAC
h -t 2.581579114 -s 8 -d -1 -p ACK -e 38 -c 2 -a 0 -i 0 -k MAC
+ -t 2.581594114 -s 8 -d 1 -p cbr -e 532 -c 2 -a 0 -i 0 -k RTR 
- -t 2.581594114 -s 8 -d 1 -p cbr -e 532 -c 2 -a 0 -i 0 -k RTR
h -t 2.581594114 -s 8 -d 1 -p cbr -e 532 -c 2 -a 0 -i 0 -k RTR
r -t 2.581884137 -s 1 -d -1 -p ACK -e 38 -c 2 -a 0 -i 0 -k MAC
+ -t 2.582193114 -s 8 -d -1 -p RTS -e 44 -c 2 -a 0 -i 0 -k MAC 
- -t 2.582193114 -s 8 -d -1 -p RTS -e 44 -c 2 -a 0 -i 0 -k MAC
h -t 2.582193114 -s 8 -d -1 -p RTS -e 44 -c 2 -a 0 -i 0 -k MAC
r -t 2.582546137 -s 1 -d -1 -p RTS -e 44 -c 2 -a 0 -i 0 -k MAC
+ -t 2.582556137 -s 1 -d -1 -p CTS -e 38 -c 2 -a 0 -i 0 -k MAC 
- -t 2.582556137 -s 1 -d -1 -p CTS -e 38 -c 2 -a 0 -i 0 -k MAC
h -t 2.582556137 -s 1 -d -1 -p CTS -e 38 -c 2 -a 0 -i 0 -k MAC
r -t 2.582861159 -s 8 -d -1 -p CTS -e 38 -c 2 -a 0 -i 0 -k MAC
+ -t 2.582871159 -s 8 -d 1 -p cbr -e 590 -c 2 -a 0 -i 0 -k MAC 
- -t 2.582871159 -s 8 -d 1 -p cbr -e 590 -c 2 -a 0 -i 0 -k MAC
h -t 2.582871159 -s 8 -d 1 -p cbr -e 590 -c 2 -a 0 -i 0 -k MAC
r -t 2.587592182 -s 1 -d 1 -p cbr -e 532 -c 2 -a 0 -i 0 -k MAC
+ -t 2.587602182 -s 1 -d -1 -p ACK -e 38 -c 2 -a 0 -i 0 -k MAC 
- -t 2.587602182 -s 1 -d -1 -p ACK -e 38 -c 2 -a 0 -i 0 -k MAC
h -t 2.587602182 -s 1 -d -1 -p ACK -e 38 -c 2 -a 0 -i 0 -k MAC
+ -t 2.587617182 -s 1 -d 0 -p cbr -e 532 -c 2 -a 0 -i 0 -k RTR 
- -t 2.587617182 -s 1 -d 0 -p cbr -e 532 -c 2 -a 0 -i 0 -k RTR
h -t 2.587617182 -s 1 -d 0 -p cbr -e 532 -c 2 -a 0 -i 0 -k RTR
r -t 2.587907205 -s 8 -d -1 -p ACK -e 38 -c 2 -a 0 -i 0 -k MAC
+ -t 2.588016182 -s 1 -d -1 -p RTS -e 44 -c 2 -a 0 -i 0 -k MAC 
- -t 2.588016182 -s 1 -d -1 -p RTS -e 44 -c 2 -a 0 -i 0 -k MAC
h -t 2.588016182 -s 1 -d -1 -p RTS -e 44 -c 2 -a 0 -i 0 -k MAC
r -t 2.588368910 -s 0 -d -1 -p RTS -e 44 -c 2 -a 0 -i 0 -k MAC
+ -t 2.588378910 -s 0 -d -1 -p CTS -e 38 -c 2 -a 0 -i 0 -k MAC 
- -t 2.588378910 -s 0 -d -1 -p CTS -e 38 -c 2 -a 0 -i 0 -k MAC
h -t 2.588378910 -s 0 -d -1 -p CTS -e 38 -c 2 -a 0 -i 0 -k MAC
r -t 2.588683638 -s 1 -d -1 -p CTS -e 38 -c 2 -a 0 -i 0 -k MAC
+ -t 2.588693638 -s 1 -d 0 -p cbr -e 590 -c 2 -a 0 -i 0 -k MAC 
- -t 2.588693638 -s 1 -d 0 -p cbr -e 590 -c 2 -a 0 -i 0 -k MAC
h -t 2.588693638 -s 1 -d 0 -p cbr -e 590 -c 2 -a 0 -i 0 -k MAC
r -t 2.593414366 -s 0 -d 0 -p cbr -e 532 -c 2 -a 0 -i 0 -k MAC
+ -t 2.593424366 -s 0 -d -1 -p ACK -e 38 -c 2 -a 0 -i 0 -k MAC 
- -t 2.593424366 -s 0 -d -1 -p ACK -e 38 -c 2 -a 0 -i 0 -k MAC
h -t 2.593424366 -s 0 -d -1 -p ACK -e 38 -c 2 -a 0 -i 0 -k MAC
+ -t 2.593439366 -s 0 -d 9 -p cbr -e 532 -c 2 -a 0 -i 0 -k RTR 
- -t 2.593439366 -s 0 -d 9 -p cbr -e 532 -c 2 -a 0 -i 0 -k RTR
h -t 2.593439366 -s 0 -d 9 -p cbr -e 532 -c 2 -a 0 -i 0 -k RTR
r -t 2.593729093 -s 1 -d -1 -p ACK -e 38 -c 2 -a 0 -i 0 -k MAC
+ -t 2.594378366 -s 0 -d -1 -p RTS -e 44 -c 2 -a 0 -i 0 -k MAC 
- -t 2.594378366 -s 0 -d -1 -p RTS -e 44 -c 2 -a 0 -i 0 -k MAC
h -t 2.594378366 -s 0 -d -1 -p RTS -e 44 -c 2 -a 0 -i 0 -k MAC
r -t 2.594731477 -s 9 -d -1 -p RTS -e 44 -c 2 -a 0 -i 0 -k MAC
+ -t 2.594741477 -s 9 -d -1 -p CTS -e 38 -c 2 -a 0 -i 0 -k MAC 
- -t 2.594741477 -s 9 -d -1 -p CTS -e 38 -c 2 -a 0 -i 0 -k MAC
h -t 2.594741477 -s 9 -d -1 -p CTS -e 38 -c 2 -a 0 -i 0 -k MAC
r -t 2.595046589 -s 0 -d -1 -p CTS -e 38 -c 2 -a 0 -i 0 -k MAC
+ -t 2.595056589 -s 0 -d 9 -p cbr -e 590 -c 2 -a 0 -i 0 -k MAC 
- -t 2.595056589 -s 0 -d 9 -p cbr -e 590 -c 2 -a 0 -i 0 -k MAC
h -t 2.595056589 -s 0 -d 9 -p cbr -e 590 -c 2 -a 0 -i 0 -k MAC
r -t 2.599777700 -s 9 -d 9 -p cbr -e 532 -c 2 -a 0 -i 0 -k MAC
+ -t 2.599787700 -s 9 -d -1 -p ACK -e 38 -c 2 -a 0 -i 0 -k MAC 
- -t 2.599787700 -s 9 -d -1 -p ACK -e 38 -c 2 -a 0 -i 0 -k MAC
h -t 2.599787700 -s 9 -d -1 -p ACK -e 38 -c 2 -a 0 -i 0 -k MAC
r -t 2.599802700 -s 9 -d 9 -p cbr -e 532 -c 2 -a 0 -i 0 -k AGT
r -t 2.600092812 -s 0 -d -1 -p ACK -e 38 -c 2 -a 0 -i 0 -k MAC
+ -t 2.731833653 -s 4 -d -1 -p AOMDV -e 44 -c 2 -a 0 -i 0 -k RTR 
- -t 2.731833653 -s 4 -d -1 -p AOMDV -e 44 -c 2 -a 0 -i 0 -k RTR
h -t 2.731833653 -s 4 -d -1 -p AOMDV -e 44 -c 2 -a 0 -i 0 -k RTR
+ -t 2.732028653 -s 4 -d -1 -p AOMDV -e 102 -c 2 -a 0 -i 0 -k MAC 
- -t 2.732028653 -s 4 -d -1 -p AOMDV -e 102 -c 2 -a 0 -i 0 -k MAC
h -t 2.732028653 -s 4 -d -1 -p AOMDV -e 102 -c 2 -a 0 -i 0 -k MAC
r -t 2.732844959 -s 2 -d -1 -p AOMDV -e 44 -c 2 -a 0 -i 0 -k MAC
r -t 2.732845175 -s 1 -d -1 -p AOMDV -e 44 -c 2 -a 0 -i 0 -k MAC
r -t 2.732845200 -s 5 -d -1 -p AOMDV -e 44 -c 2 -a 0 -i 0 -k MAC
r -t 2.732845237 -s 6 -d -1 -p AOMDV -e 44 -c 2 -a 0 -i 0 -k MAC
r -t 2.732845338 -s 8 -d -1 -p AOMDV -e 44 -c 2 -a 0 -i 0 -k MAC
r -t 2.732845663 -s 3 -d -1 -p AOMDV -e 44 -c 2 -a 0 -i 0 -k MAC
r -t 2.732845702 -s 0 -d -1 -p AOMDV -e 44 -c 2 -a 0 -i 0 -k MAC
r -t 2.732869959 -s 2 -d -1 -p AOMDV -e 44 -c 2 -a 0 -i 0 -k RTR
r -t 2.732870175 -s 1 -d -1 -p AOMDV -e 44 -c 2 -a 0 -i 0 -k RTR
r -t 2.732870200 -s 5 -d -1 -p AOMDV -e 44 -c 2 -a 0 -i 0 -k RTR
r -t 2.732870237 -s 6 -d -1 -p AOMDV -e 44 -c 2 -a 0 -i 0 -k RTR
r -t 2.732870338 -s 8 -d -1 -p AOMDV -e 44 -c 2 -a 0 -i 0 -k RTR
r -t 2.732870663 -s 3 -d -1 -p AOMDV -e 44 -c 2 -a 0 -i 0 -k RTR
r -t 2.732870702 -s 0 -d -1 -p AOMDV -e 44 -c 2 -a 0 -i 0 -k RTR
+ -t 2.779648316 -s 3 -d -1 -p AOMDV -e 44 -c 2 -a 0 -i 0 -k RTR 
- -t 2.779648316 -s 3 -d -1 -p AOMDV -e 44 -c 2 -a 0 -i 0 -k RTR
h -t 2.779648316 -s 3 -d -1 -p AOMDV -e 44 -c 2 -a 0 -i 0 -k RTR
+ -t 2.780263316 -s 3 -d -1 -p AOMDV -e 102 -c 2 -a 0 -i 0 -k MAC 
- -t 2.780263316 -s 3 -d -1 -p AOMDV -e 102 -c 2 -a 0 -i 0 -k MAC
h -t 2.780263316 -s 3 -d -1 -p AOMDV -e 102 -c 2 -a 0 -i 0 -k MAC
r -t 2.781079831 -s 1 -d -1 -p AOMDV -e 44 -c 2 -a 0 -i 0 -k MAC
r -t 2.781079997 -s 7 -d -1 -p AOMDV -e 44 -c 2 -a 0 -i 0 -k MAC
r -t 2.781080159 -s 6 -d -1 -p AOMDV -e 44 -c 2 -a 0 -i 0 -k MAC
r -t 2.781080227 -s 0 -d -1 -p AOMDV -e 44 -c 2 -a 0 -i 0 -k MAC
r -t 2.781080326 -s 4 -d -1 -p AOMDV -e 44 -c 2 -a 0 -i 0 -k MAC
r -t 2.781080356 -s 9 -d -1 -p AOMDV -e 44 -c 2 -a 0 -i 0 -k MAC
r -t 2.781080413 -s 2 -d -1 -p AOMDV -e 44 -c 2 -a 0 -i 0 -k MAC
r -t 2.781080521 -s 5 -d -1 -p AOMDV -e 44 -c 2 -a 0 -i 0 -k MAC
r -t 2.781104831 -s 1 -d -1 -p AOMDV -e 44 -c 2 -a 0 -i 0 -k RTR
r -t 2.781104997 -s 7 -d -1 -p AOMDV -e 44 -c 2 -a 0 -i 0 -k RTR
r -t 2.781105159 -s 6 -d -1 -p AOMDV -e 44 -c 2 -a 0 -i 0 -k RTR
r -t 2.781105227 -s 0 -d -1 -p AOMDV -e 44 -c 2 -a 0 -i 0 -k RTR
r -t 2.781105326 -s 4 -d -1 -p AOMDV -e 44 -c 2 -a 0 -i 0 -k RTR
r -t 2.781105356 -s 9 -d -1 -p AOMDV -e 44 -c 2 -a 0 -i 0 -k RTR
r -t 2.781105413 -s 2 -d -1 -p AOMDV -e 44 -c 2 -a 0 -i 0 -k RTR
r -t 2.781105521 -s 5 -d -1 -p AOMDV -e 44 -c 2 -a 0 -i 0 -k RTR
+ -t 2.827060189 -s 8 -d -1 -p cbr -e 512 -c 2 -a 0 -i 1 -k AGT 
- -t 2.827060189 -s 8 -d -1 -p cbr -e 512 -c 2 -a 0 -i 1 -k AGT
h -t 2.827060189 -s 8 -d -1 -p cbr -e 512 -c 2 -a 0 -i 1 -k AGT
+ -t 2.827060189 -s 8 -d 1 -p cbr -e 532 -c 2 -a 0 -i 1 -k RTR 
- -t 2.827060189 -s 8 -d 1 -p cbr -e 532 -c 2 -a 0 -i 1 -k RTR
h -t 2.827060189 -s 8 -d 1 -p cbr -e 532 -c 2 -a 0 -i 1 -k RTR
+ -t 2.827435189 -s 8 -d -1 -p RTS -e 44 -c 2 -a 0 -i 0 -k MAC 
- -t 2.827435189 -s 8 -d -1 -p RTS -e 44 -c 2 -a 0 -i 0 -k MAC
h -t 2.827435189 -s 8 -d -1 -p RTS -e 44 -c 2 -a 0 -i 0 -k MAC
r -t 2.827788212 -s 1 -d -1 -p RTS -e 44 -c 2 -a 0 -i 0 -k MAC
+ -t 2.827798212 -s 1 -d -1 -p CTS -e 38 -c 2 -a 0 -i 0 -k MAC 
- -t 2.827798212 -s 1 -d -1 -p CTS -e 38 -c 2 -a 0 -i 0 -k MAC
h -t 2.827798212 -s 1 -d -1 -p CTS -e 38 -c 2 -a 0 -i 0 -k MAC
r -t 2.828103235 -s 8 -d -1 -p CTS -e 38 -c 2 -a 0 -i 0 -k MAC
+ -t 2.828113235 -s 8 -d 1 -p cbr -e 590 -c 2 -a 0 -i 1 -k MAC 
- -t 2.828113235 -s 8 -d 1 -p cbr -e 590 -c 2 -a 0 -i 1 -k MAC
h -t 2.828113235 -s 8 -d 1 -p cbr -e 590 -c 2 -a 0 -i 1 -k MAC
r -t 2.832834258 -s 1 -d 1 -p cbr -e 532 -c 2 -a 0 -i 1 -k MAC
+ -t 2.832844258 -s 1 -d -1 -p ACK -e 38 -c 2 -a 0 -i 0 -k MAC 
- -t 2.832844258 -s 1 -d -1 -p ACK -e 38 -c 2 -a 0 -i 0 -k MAC
h -t 2.832844258 -s 1 -d -1 -p ACK -e 38 -c 2 -a 0 -i 0 -k MAC
+ -t 2.832859258 -s 1 -d 0 -p cbr -e 532 -c 2 -a 0 -i 1 -k RTR 
- -t 2.832859258 -s 1 -d 0 -p cbr -e 532 -c 2 -a 0 -i 1 -k RTR
h -t 2.832859258 -s 1 -d 0 -p cbr -e 532 -c 2 -a 0 -i 1 -k RTR
r -t 2.833149281 -s 8 -d -1 -p ACK -e 38 -c 2 -a 0 -i 0 -k MAC
+ -t 2.833538258 -s 1 -d -1 -p RTS -e 44 -c 2 -a 0 -i 0 -k MAC 
- -t 2.833538258 -s 1 -d -1 -p RTS -e 44 -c 2 -a 0 -i 0 -k MAC
h -t 2.833538258 -s 1 -d -1 -p RTS -e 44 -c 2 -a 0 -i 0 -k MAC
r -t 2.833890986 -s 0 -d -1 -p RTS -e 44 -c 2 -a 0 -i 0 -k MAC
+ -t 2.833900986 -s 0 -d -1 -p CTS -e 38 -c 2 -a 0 -i 0 -k MAC 
- -t 2.833900986 -s 0 -d -1 -p CTS -e 38 -c 2 -a 0 -i 0 -k MAC
h -t 2.833900986 -s 0 -d -1 -p CTS -e 38 -c 2 -a 0 -i 0 -k MAC
r -t 2.834205713 -s 1 -d -1 -p CTS -e 38 -c 2 -a 0 -i 0 -k MAC
+ -t 2.834215713 -s 1 -d 0 -p cbr -e 590 -c 2 -a 0 -i 1 -k MAC 
- -t 2.834215713 -s 1 -d 0 -p cbr -e 590 -c 2 -a 0 -i 1 -k MAC
h -t 2.834215713 -s 1 -d 0 -p cbr -e 590 -c 2 -a 0 -i 1 -k MAC
r -t 2.838936441 -s 0 -d 0 -p cbr -e 532 -c 2 -a 0 -i 1 -k MAC
+ -t 2.838946441 -s 0 -d -1 -p ACK -e 38 -c 2 -a 0 -i 0 -k MAC 
- -t 2.838946441 -s 0 -d -1 -p ACK -e 38 -c 2 -a 0 -i 0 -k MAC
h -t 2.838946441 -s 0 -d -1 -p ACK -e 38 -c 2 -a 0 -i 0 -k MAC
+ -t 2.838961441 -s 0 -d 9 -p cbr -e 532 -c 2 -a 0 -i 1 -k RTR 
- -t 2.838961441 -s 0 -d 9 -p cbr -e 532 -c 2 -a 0 -i 1 -k RTR
h -t 2.838961441 -s 0 -d 9 -p cbr -e 532 -c 2 -a 0 -i 1 -k RTR
r -t 2.839251169 -s 1 -d -1 -p ACK -e 38 -c 2 -a 0 -i 0 -k MAC
+ -t 2.839880441 -s 0 -d -1 -p RTS -e 44 -c 2 -a 0 -i 0 -k MAC 
- -t 2.839880441 -s 0 -d -1 -p RTS -e 44 -c 2 -a 0 -i 0 -k MAC
h -t 2.839880441 -s 0 -d -1 -p RTS -e 44 -c 2 -a 0 -i 0 -k MAC
r -t 2.840233553 -s 9 -d -1 -p RTS -e 44 -c 2 -a 0 -i 0 -k MAC
+ -t 2.840243553 -s 9 -d -1 -p CTS -e 38 -c 2 -a 0 -i 0 -k MAC 
- -t 2.840243553 -s 9 -d -1 -p CTS -e 38 -c 2 -a 0 -i 0 -k MAC